 VARIABLES= X, Y, Z, Up, Vp, Wp, Dp, ts 
 ZONE I= number  J= 1  K= 1
0.000499919 0.059599 -5.76342e-15 -0.000534267 -1.0003 -2.43197e-11 1e-05 20
0.00149973 0.0595989 -2.87599e-15 -0.00179574 -1.00042 -1.28544e-11 1e-05 20
0.00249942 0.0595989 8.81132e-17 -0.00382579 -1.00082 3.34986e-12 1e-05 20
0.00349847 0.0595986 -7.87868e-17 -0.00999173 -1.00302 -1.28823e-12 1e-05 20
0.00449424 0.0595958 -7.76429e-15 -0.036248 -1.02341 -2.4969e-11 1e-05 20
0.000499544 0.0591987 -1.51954e-14 -0.00143676 -1.00132 -1.25082e-11 1e-05 40
0.00149847 0.0591986 -1.04585e-14 -0.00478327 -1.00184 -2.31913e-11 1e-05 40
0.00249676 0.0591981 -1.3362e-15 -0.0100908 -1.0035 -1.39417e-11 1e-05 40
0.00349167 0.0591959 8.28498e-17 -0.0251989 -1.01208 2.41895e-12 1e-05 40
0.00447134 0.0591776 -1.32622e-14 -0.0781593 -1.07206 1.75051e-12 1e-05 40
0.000498787 0.0587978 -7.63635e-15 -0.00238624 -1.00318 6.32035e-11 1e-05 60
0.00149596 0.0587974 -1.72421e-14 -0.00789303 -1.00437 -1.78416e-12 1e-05 60
0.00249151 0.0587959 -1.5509e-14 -0.0163362 -1.00807 -5.66167e-11 1e-05 60
0.00347896 0.0587886 4.22189e-15 -0.0382277 -1.02565 2.52349e-11 1e-05 60
0.00443568 0.0587406 -5.95145e-15 -0.0968275 -1.11147 3.48234e-11 1e-05 60
0.000497668 0.0583961 1.76439e-15 -0.00324807 -1.00586 -4.65186e-11 1e-05 80
0.00149227 0.058395 -1.12407e-14 -0.0106548 -1.00792 2.84022e-11 1e-05 80
0.00248397 0.0583916 -4.34789e-14 -0.0214903 -1.01408 -7.45457e-11 1e-05 80
0.00346189 0.0583754 1.9894e-14 -0.0467136 -1.04109 4.48986e-11 1e-05 80
0.00439685 0.0582926 3.16515e-15 -0.0951159 -1.12431 -9.34413e-12 1e-05 80
0.000496228 0.0579931 -2.63286e-15 -0.0039608 -1.00911 -6.56272e-14 1e-05 100
0.00148757 0.057991 -3.33516e-15 -0.0128596 -1.0121 1.81122e-12 1e-05 100
0.00247461 0.0579847 -6.98805e-14 -0.0252328 -1.02071 -5.0065e-11 1e-05 100
0.00344229 0.0579561 3.20748e-14 -0.0509031 -1.05592 8.30828e-12 1e-05 100
0.00436068 0.0578438 -1.46315e-15 -0.0849166 -1.12701 -1.12663e-11 1e-05 100
0.000494528 0.0575888 -9.29864e-15 -0.00454097 -1.01307 -3.09336e-11 1e-05 120
0.00148209 0.0575853 -7.62781e-15 -0.0145524 -1.01701 -1.55023e-11 1e-05 120
0.00246399 0.0575751 -7.89297e-14 -0.0277652 -1.02796 1.37609e-11 1e-05 120
0.00342212 0.0575323 2.86054e-14 -0.0493962 -1.06241 -2.78457e-11 1e-05 120
0.00432859 0.0573917 -8.5579e-15 -0.0753382 -1.12988 -2.86182e-11 1e-05 120
0.00049263 0.0571828 -2.42414e-14 -0.0049472 -1.01725 -4.40649e-11 1e-05 140
0.00147604 0.0571775 -1.25667e-14 -0.0156787 -1.02207 -6.36565e-12 1e-05 140
0.00245259 0.0571625 -5.95188e-14 -0.0291555 -1.03507 7.36271e-11 1e-05 140
0.00340261 0.0571058 1.13641e-14 -0.0481435 -1.07109 -5.20565e-11 1e-05 140
0.00430007 0.0569419 -2.3276e-14 -0.0669116 -1.11654 -3.6224e-11 1e-05 140
0.000490596 0.056775 -4.38489e-14 -0.00521605 -1.0218 -4.94894e-11 1e-05 160
0.00146962 0.0567677 -1.28069e-14 -0.0163619 -1.02737 4.98537e-12 1e-05 160
0.0024408 0.0567472 -3.50018e-14 -0.0296981 -1.04188 3.16556e-11 1e-05 160
0.00338359 0.0566756 -4.79259e-15 -0.0468093 -1.08004 -2.03988e-11 1e-05 160
0.00427482 0.0564993 -3.34274e-14 -0.0590576 -1.0942 -1.65601e-11 1e-05 160
0.000488478 0.0563654 -5.62205e-14 -0.00536346 -1.0265 3.38176e-12 1e-05 180
0.00146301 0.0563558 -1.05367e-14 -0.0166729 -1.03275 1.14315e-11 1e-05 180
0.00242892 0.0563292 -3.37268e-14 -0.0296314 -1.04845 -2.42413e-11 1e-05 180
0.00336516 0.056242 -1.25599e-14 -0.0452076 -1.08847 -3.06011e-11 1e-05 180
0.00425254 0.0560664 -3.52342e-14 -0.0520287 -1.06855 1.52042e-11 1e-05 180
0.000486319 0.0559539 -3.65296e-14 -0.00542032 -1.03122 8.8946e-11 1e-05 200
0.00145633 0.0559417 -2.25595e-16 -0.0166999 -1.03784 4.30325e-11 1e-05 200
0.00241714 0.0559086 -5.11158e-14 -0.0291693 -1.05459 -5.57469e-11 1e-05 200
0.00334742 0.0558051 -3.15506e-14 -0.0434335 -1.09631 -5.67324e-11 1e-05 200
0.00423289 0.0556438 -2.34272e-14 -0.0461475 -1.04308 3.22593e-11 1e-05 200
0.000484152 0.0555404 -6.02423e-15 -0.00540236 -1.03618 3.77505e-11 1e-05 220
0.00144968 0.0555255 6.09977e-15 -0.016507 -1.04309 1.23991e-11 1e-05 220
0.0024056 0.0554857 -6.85327e-14 -0.0284777 -1.06031 -2.01508e-11 1e-05 220
0.00333039 0.0553652 -4.66285e-14 -0.0416424 -1.1034 -9.89011e-12 1e-05 220
0.0042154 0.0552309 -1.59763e-14 -0.0424173 -1.03873 5.58157e-12 1e-05 220
0.000482003 0.0551251 -8.27864e-15 -0.00532696 -1.04092 -4.6168e-11 1e-05 240
0.00144313 0.0551073 1.53186e-14 -0.0161782 -1.04815 2.68523e-11 1e-05 240
0.00239437 0.0550605 -6.52808e-14 -0.0276051 -1.06594 3.89295e-11 1e-05 240
0.00331407 0.0549226 -4.33878e-14 -0.0398635 -1.11 2.36866e-11 1e-05 240
0.00419849 0.0548078 -1.62492e-14 -0.0414368 -1.06832 -1.42881e-11 1e-05 240
0.000479893 0.0547078 -3.44199e-14 -0.00521239 -1.04548 -8.14866e-11 1e-05 260
0.00143674 0.0546872 2.44261e-14 -0.0157658 -1.05299 1.77653e-11 1e-05 260
0.0023835 0.0546331 -3.78711e-14 -0.0266785 -1.07122 9.42156e-11 1e-05 260
0.00329844 0.0544774 -3.0459e-14 -0.0381555 -1.11602 3.26987e-11 1e-05 260
0.00418244 0.0543808 -2.41788e-14 -0.0386378 -1.06414 -1.42356e-11 1e-05 260
0.000477836 0.0542887 -6.66468e-14 -0.00506538 -1.05018 -6.92368e-11 1e-05 280
0.00143052 0.0542651 2.91544e-14 -0.0152916 -1.05773 4.82699e-12 1e-05 280
0.00237301 0.0542037 -4.34801e-15 -0.0257479 -1.07617 5.3251e-11 1e-05 280
0.00328349 0.05403 -2.42308e-14 -0.03654 -1.12144 -9.00845e-12 1e-05 280
0.00416758 0.0539575 -2.22233e-14 -0.0355597 -1.05086 1.95087e-11 1e-05 280
0.000475838 0.0538678 -8.26539e-14 -0.00491594 -1.05458 2.44944e-12 1e-05 300
0.0014245 0.0538411 3.00383e-14 -0.014794 -1.06233 -4.84358e-12 1e-05 300
0.00236289 0.0537723 1.29738e-14 -0.0248094 -1.08101 5.32353e-11 1e-05 300
0.00326939 0.0535817 -3.91697e-14 -0.0338328 -1.11984 -7.18492e-11 1e-05 300
0.00415391 0.0535401 -1.38025e-14 -0.0326769 -1.03555 2.11056e-11 1e-05 300
0.000473901 0.0534452 -6.48907e-14 -0.00476342 -1.05887 8.24461e-11 1e-05 320
0.00141867 0.0534153 2.12336e-14 -0.0143009 -1.06673 -4.338e-11 1e-05 320
0.00235314 0.053339 4.04922e-14 -0.0239056 -1.08567 8.09685e-11 1e-05 320
0.00325622 0.0531334 -7.09391e-14 -0.0320906 -1.12233 -7.32136e-11 1e-05 320
0.00414133 0.0531287 -4.85721e-15 -0.0301798 -1.02079 1.99071e-11 1e-05 320
0.000472026 0.0530208 -3.43981e-14 -0.00460573 -1.06311 5.23925e-11 1e-05 340
0.00141304 0.0529879 5.63664e-15 -0.0138252 -1.0709 -1.80773e-11 1e-05 340
0.00234374 0.0529039 7.18051e-14 -0.0229438 -1.08988 6.22207e-11 1e-05 340
0.00324365 0.0526837 -8.42214e-14 -0.0307469 -1.12627 9.4428e-12 1e-05 340
0.00412971 0.0527233 1.61432e-15 -0.0278659 -1.00585 8.36402e-12 1e-05 340
0.000470212 0.0525948 -2.71288e-14 -0.00445539 -1.06721 -1.50131e-11 1e-05 360
0.0014076 0.0525587 9.04189e-15 -0.0133533 -1.07508 2.56207e-11 1e-05 360
0.00233496 0.0524678 8.75609e-14 -0.0211052 -1.09122 1.53026e-11 1e-05 360
0.00323158 0.0522324 -6.54158e-14 -0.0295759 -1.13026 7.40196e-11 1e-05 360
0.00411894 0.0523236 4.03207e-15 -0.0258765 -0.992033 1.12869e-11 1e-05 360
0.000468468 0.0521672 -4.11924e-14 -0.00398065 -1.071 -5.30604e-11 1e-05 380
0.0014025 0.0521281 2.29332e-14 -0.0120071 -1.07794 4.76044e-11 1e-05 380
0.00232672 0.0520307 8.26898e-14 -0.0201082 -1.09464 -4.37056e-11 1e-05 380
0.00321996 0.0517796 -3.74249e-14 -0.0284675 -1.1341 4.90687e-11 1e-05 380
0.00410894 0.0519293 1.15047e-14 -0.0240879 -0.978761 2.57414e-11 1e-05 380
0.000467084 0.0517381 -6.56872e-14 -0.00307334 -1.07453 -6.29129e-11 1e-05 400
0.00139786 0.0516963 4.21398e-14 -0.0112313 -1.08133 3.95147e-11 1e-05 400
0.00231882 0.0515921 6.13474e-14 -0.0193887 -1.0984 -4.86876e-11 1e-05 400
0.00320877 0.0513253 -3.29229e-14 -0.0274623 -1.13751 -3.39507e-11 1e-05 400
0.00409961 0.0515402 1.92753e-14 -0.0225061 -0.966263 9.3858e-12 1e-05 400
0.000465921 0.0513076 -8.1516e-14 -0.00277123 -1.07824 -1.25801e-11 1e-05 420
0.00139346 0.0512631 4.82296e-14 -0.0107824 -1.08486 -1.49034e-11 1e-05 420
0.00231119 0.051152 5.1396e-14 -0.018752 -1.1023 2.91123e-12 1e-05 420
0.00319796 0.0508697 -6.03134e-14 -0.0265293 -1.1405 -9.52432e-11 1e-05 420
0.00409088 0.0511559 1.94819e-14 -0.0211105 -0.95461 -5.66409e-12 1e-05 420
0.000464842 0.0508756 -7.72122e-14 -0.00262999 -1.08187 2.8682e-11 1e-05 440
0.00138922 0.0508284 3.02037e-14 -0.0104179 -1.08858 -6.51774e-11 1e-05 440
0.0023038 0.0507104 5.85382e-14 -0.0181715 -1.10615 2.5397e-11 1e-05 440
0.00318752 0.050413 -9.66722e-14 -0.0256214 -1.14321 -6.42854e-11 1e-05 440
0.00408267 0.0507761 1.57107e-14 -0.0198559 -0.943587 -1.54425e-11 1e-05 440
0.000463808 0.0504422 -6.50205e-14 -0.0025378 -1.08541 2.2e-11 1e-05 460
0.00138511 0.0503923 5.91957e-15 -0.0101052 -1.09211 -3.99217e-11 1e-05 460
0.00229663 0.0502672 6.40082e-14 -0.0176395 -1.1099 -4.8973e-12 1e-05 460
0.00317743 0.0499552 -1.03921e-13 -0.0247926 -1.14548 4.05223e-11 1e-05 460
0.00407495 0.0504007 6.99415e-15 -0.0187062 -0.932957 -2.68635e-11 1e-05 460
0.000462808 0.0500073 -6.21038e-14 -0.00246356 -1.08878 -9.64698e-12 1e-05 480
0.00138112 0.0499548 -2.0835e-15 -0.00981517 -1.09563 -2.29255e-11 1e-05 480
0.00228967 0.0498226 5.71061e-14 -0.0171626 -1.11342 -2.33008e-11 1e-05 480
0.00316767 0.0494967 -7.14133e-14 -0.0239802 -1.1475 1.11432e-10 1e-05 480
0.00406767 0.0500295 -1.99146e-15 -0.0176894 -0.923092 -1.19383e-11 1e-05 480
0.000461836 0.0495712 -6.81728e-14 -0.00239431 -1.09219 -1.75732e-11 1e-05 500
0.00137724 0.0495159 -1.61515e-14 -0.00955845 -1.09892 -4.42233e-11 1e-05 500
0.00228289 0.0493765 4.91307e-14 -0.0167146 -1.11689 -1.28164e-11 1e-05 500
0.00315822 0.0490373 -2.96838e-14 -0.0232179 -1.14921 7.68592e-11 1e-05 500
0.00406071 0.0496604 -6.65517e-15 -0.0178805 -0.945156 -6.46927e-12 1e-05 500
0.000460891 0.0491337 -7.12461e-14 -0.00233062 -1.09549 7.4228e-12 1e-05 520
0.00137347 0.0490757 -3.2159e-14 -0.00930994 -1.10221 -3.18228e-11 1e-05 520
0.00227629 0.0489291 4.85938e-14 -0.0162876 -1.12039 1.56818e-11 1e-05 520
0.00314907 0.0485774 -1.60959e-14 -0.0224979 -1.15064 -1.63574e-11 1e-05 520
0.00405335 0.0492731 -6.2458e-15 -0.0186144 -0.982871 8.67059e-12 1e-05 520
0.00045997 0.0486949 -6.08763e-14 -0.0022701 -1.09869 4.50806e-11 1e-05 540
0.00136979 0.0486342 -3.65427e-14 -0.0090715 -1.10552 1.58671e-11 1e-05 540
0.00226985 0.0484803 6.26535e-14 -0.01588 -1.1239 5.48288e-11 1e-05 540
0.0031402 0.0481169 -3.58175e-14 -0.0218096 -1.1518 -7.48246e-11 1e-05 540
0.00404597 0.0488787 -1.33661e-15 -0.0181415 -0.986587 1.24133e-11 1e-05 540
0.000459073 0.0482548 -3.96718e-14 -0.00221343 -1.10186 5.22039e-11 1e-05 560
0.00136621 0.0481914 -2.26181e-14 -0.00885042 -1.10875 4.75724e-11 1e-05 560
0.00226357 0.0480301 8.44211e-14 -0.0155069 -1.12728 3.96224e-11 1e-05 560
0.0031316 0.047656 -6.23034e-14 -0.021163 -1.15268 -4.30506e-11 1e-05 560
0.00403885 0.0484849 2.84797e-15 -0.017406 -0.981749 1.23789e-11 1e-05 560
0.000458197 0.0478135 -2.49848e-14 -0.00216369 -1.10489 1.40299e-11 1e-05 580
0.0013627 0.0477473 -7.96515e-15 -0.0086525 -1.1118 1.80383e-11 1e-05 580
0.00225743 0.0475785 8.79421e-14 -0.0151623 -1.13054 -2.74557e-11 1e-05 580
0.00312327 0.0471948 -6.27349e-14 -0.0204012 -1.1539 4.7295e-11 1e-05 580
0.00403204 0.0480935 8.17106e-15 -0.0166417 -0.974817 9.02341e-12 1e-05 580
0.000457341 0.0473709 -2.9276e-14 -0.00211712 -1.10788 -3.31541e-11 1e-05 600
0.00135928 0.047302 -9.1222e-15 -0.00846592 -1.11482 -2.08741e-11 1e-05 600
0.00225143 0.0471257 6.87741e-14 -0.0148427 -1.13371 -6.20186e-11 1e-05 600
0.00311528 0.0467327 -3.23848e-14 -0.0195671 -1.15612 8.56294e-11 1e-05 600
0.00402552 0.0477049 8.32399e-15 -0.0159118 -0.967543 -7.18168e-12 1e-05 600
0.000456502 0.0469272 -4.59421e-14 -0.00207298 -1.11086 -4.15456e-11 1e-05 620
0.00135593 0.0468555 -2.05304e-14 -0.00828855 -1.1178 -2.90727e-11 1e-05 620
0.00224555 0.0466716 4.51428e-14 -0.0145392 -1.13686 -4.71047e-11 1e-05 620
0.00310757 0.04627 -1.06903e-14 -0.0189907 -1.15766 1.25487e-11 1e-05 620
0.00401929 0.0473193 6.10722e-15 -0.0152257 -0.960316 7.02055e-13 1e-05 620
0.000455681 0.0464823 -5.79996e-14 -0.00202991 -1.11379 -1.11479e-11 1e-05 640
0.00135264 0.0464078 -2.97815e-14 -0.0081229 -1.12072 -8.64898e-12 1e-05 640
0.00223979 0.0462163 3.51866e-14 -0.0142499 -1.13995 3.86276e-12 1e-05 640
0.00310007 0.0458067 -2.24288e-14 -0.0184923 -1.15888 -6.42047e-11 1e-05 640
0.00401332 0.0469365 8.64449e-15 -0.0145997 -0.953417 8.80457e-12 1e-05 640
0.000454877 0.0460362 -5.48446e-14 -0.00199001 -1.11665 2.91942e-11 1e-05 660
0.00134942 0.045959 -2.43605e-14 -0.00796397 -1.12364 3.92922e-11 1e-05 660
0.00223414 0.0457598 4.713e-14 -0.0139818 -1.1429 4.98023e-11 1e-05 660
0.00309276 0.0453429 -5.17486e-14 -0.0180316 -1.15985 -6.76848e-11 1e-05 660
0.00400759 0.0465563 1.01498e-14 -0.0140215 -0.946787 -3.83688e-12 1e-05 660
0.000454088 0.0455891 -3.93175e-14 -0.00195367 -1.11946 4.19661e-11 1e-05 680
0.00134627 0.045509 -5.22223e-15 -0.00781131 -1.12659 4.43328e-11 1e-05 680
0.0022286 0.045302 6.44912e-14 -0.0137184 -1.14588 2.35257e-11 1e-05 680
0.00308563 0.0448788 -6.66217e-14 -0.0175923 -1.16061 5.84185e-12 1e-05 680
0.00400209 0.0461789 7.52705e-15 -0.0134683 -0.940227 -4.82719e-12 1e-05 680
0.000453313 0.0451408 -2.82002e-14 -0.00191917 -1.12219 6.28541e-12 1e-05 700
0.00134317 0.0450578 6.44427e-15 -0.00767206 -1.12942 2.31282e-11 1e-05 700
0.00222316 0.0448431 6.24962e-14 -0.0134729 -1.14876 -3.38603e-11 1e-05 700
0.00307868 0.0444145 -4.97583e-14 -0.0171625 -1.16119 6.85469e-11 1e-05 700
0.00399679 0.045804 7.63163e-15 -0.0129672 -0.934087 3.94941e-12 1e-05 700
0.000452552 0.0446914 -3.5988e-14 -0.00188593 -1.12487 -4.42215e-11 1e-05 720
0.00134013 0.0446055 1.62334e-14 -0.00754109 -1.13217 2.71071e-11 1e-05 720
0.00221781 0.0443831 4.20079e-14 -0.0132409 -1.15156 -6.03306e-11 1e-05 720
0.00307189 0.0439499 -2.4714e-14 -0.0167505 -1.16161 4.23519e-11 1e-05 720
0.0039917 0.0454315 6.55415e-15 -0.0124843 -0.927947 -1.36022e-11 1e-05 720
0.000451804 0.0442409 -5.72212e-14 -0.00185341 -1.12756 -5.26995e-11 1e-05 740
0.00133713 0.0441521 2.61751e-14 -0.00741725 -1.13487 2.11316e-11 1e-05 740
0.00221256 0.0439219 2.12261e-14 -0.0130175 -1.15433 -3.11842e-11 1e-05 740
0.00306527 0.0434852 -1.88951e-14 -0.0163489 -1.16189 -1.48176e-11 1e-05 740
0.00398679 0.0450614 -1.21921e-15 -0.0120443 -0.922167 -1.33271e-11 1e-05 740
0.000451069 0.0437893 -6.88903e-14 -0.00182119 -1.13028 -4.85467e-13 1e-05 760
0.00133419 0.0436976 2.97637e-14 -0.00729477 -1.13763 -8.31959e-12 1e-05 760
0.0022074 0.0434597 2.2796e-14 -0.0128034 -1.15702 4.38209e-11 1e-05 760
0.0030588 0.0430204 -3.05379e-14 -0.015965 -1.16203 -3.53314e-11 1e-05 760
0.00398205 0.0446936 -3.89185e-15 -0.0116426 -0.916737 -7.16333e-12 1e-05 760
0.000450346 0.0433367 -5.71738e-14 -0.00179085 -1.1329 5.47673e-11 1e-05 780
0.00133129 0.0432421 2.0283e-14 -0.00718141 -1.14026 -3.29563e-11 1e-05 780
0.00220232 0.0429963 4.90978e-14 -0.0125942 -1.15967 7.33011e-11 1e-05 780
0.00305249 0.0425556 -3.92363e-14 -0.0155939 -1.16204 4.55913e-12 1e-05 780
0.00397747 0.044328 -8.01941e-15 -0.0112421 -0.911169 -9.93788e-12 1e-05 780
0.000449635 0.0428831 -3.30306e-14 -0.00176374 -1.13545 5.36132e-11 1e-05 800
0.00132844 0.0427855 1.05946e-14 -0.00707054 -1.14291 -6.1275e-12 1e-05 800
0.00219732 0.042532 7.0583e-14 -0.0123938 -1.16225 2.27515e-11 1e-05 800
0.00304632 0.0420908 -2.53059e-14 -0.0152379 -1.16194 6.31762e-11 1e-05 800
0.00397304 0.0439645 -9.59328e-15 -0.0108753 -0.90592 3.24025e-12 1e-05 800
0.000448934 0.0424284 -2.04293e-14 -0.00173783 -1.13803 9.58879e-13 1e-05 820
0.00132563 0.0423278 1.51679e-14 -0.00696737 -1.14548 2.45437e-11 1e-05 820
0.0021924 0.0420666 6.666e-14 -0.0122016 -1.16475 -4.70125e-11 1e-05 820
0.00304029 0.0416261 -9.80668e-16 -0.0148944 -1.16172 4.13181e-11 1e-05 820
0.00396876 0.0436031 -7.25413e-15 -0.0105391 -0.900985 5.75997e-12 1e-05 820
0.000448244 0.0419727 -3.04967e-14 -0.00171324 -1.14053 -4.85556e-11 1e-05 840
0.00132287 0.0418692 2.67033e-14 -0.00686816 -1.14805 2.77214e-11 1e-05 840
0.00218755 0.0416002 3.82055e-14 -0.0120147 -1.1672 -8.72275e-11 1e-05 840
0.0030344 0.0411614 1.50709e-14 -0.0145564 -1.1614 5.30163e-11 1e-05 840
0.00396461 0.0432437 -4.87603e-15 -0.0102026 -0.895927 1.0133e-11 1e-05 840
0.000447563 0.0415161 -5.2186e-14 -0.0016898 -1.14301 -4.88509e-11 1e-05 860
0.00132014 0.0414095 3.55913e-14 -0.00677581 -1.15054 8.44563e-12 1e-05 860
0.00218292 0.0411335 6.85707e-15 -0.0112259 -1.16706 -5.29353e-11 1e-05 860
0.00302864 0.040697 4.21879e-14 -0.0142286 -1.16098 7.83059e-11 1e-05 860
0.00396059 0.0428862 1.60451e-15 -0.00989358 -0.891181 2.0387e-12 1e-05 860
0.000446891 0.0410584 -6.38753e-14 -0.00166793 -1.14546 -1.35028e-12 1e-05 880
0.00131744 0.0409487 3.02858e-14 -0.00668523 -1.15307 -3.75708e-11 1e-05 880
0.0021785 0.0406663 -5.2541e-15 -0.0109038 -1.16883 -3.30418e-11 1e-05 880
0.003023 0.0402327 6.98444e-14 -0.0139149 -1.16048 4.47519e-11 1e-05 880
0.00395668 0.0425306 -9.50174e-16 -0.00960245 -0.886621 5.82038e-12 1e-05 880
0.000446228 0.0405998 -5.59577e-14 -0.00164692 -1.14787 3.63842e-11 1e-05 900
0.00131479 0.040487 1.19335e-14 -0.00659967 -1.15553 -4.30268e-11 1e-05 900
0.00217418 0.0401984 -1.90163e-14 -0.0107093 -1.17105 -2.884e-11 1e-05 900
0.00301749 0.0397686 7.08676e-14 -0.0136135 -1.1599 -5.12983e-11 1e-05 900
0.0039529 0.0421768 1.67714e-15 -0.00932371 -0.882152 1.05352e-11 1e-05 900
0.000445573 0.0401402 -4.20144e-14 -0.00162615 -1.15025 2.6907e-11 1e-05 920
0.00131216 0.0400243 2.22287e-15 -0.00651493 -1.15801 -3.72258e-14 1e-05 920
0.00216993 0.0397295 -2.80612e-14 -0.0105528 -1.17335 -1.60445e-11 1e-05 920
0.0030121 0.0393047 3.63485e-14 -0.0133187 -1.15923 -1.05131e-10 1e-05 920
0.00394922 0.0418248 8.9682e-15 -0.00905818 -0.877786 2.4102e-11 1e-05 920
0.000444927 0.0396796 -3.7753e-14 -0.00160467 -1.15263 -6.05666e-12 1e-05 940
0.00130957 0.0395607 7.71962e-15 -0.00643177 -1.16045 2.66298e-11 1e-05 940
0.00216573 0.0392598 -3.06261e-14 -0.01041 -1.17563 6.95878e-12 1e-05 940
0.00300683 0.0388412 1.5044e-15 -0.0130361 -1.15851 -5.24813e-11 1e-05 940
0.00394564 0.0414745 1.83661e-14 -0.00880594 -0.873513 2.10626e-11 1e-05 940
0.000444289 0.0392181 -4.33354e-14 -0.0015828 -1.15498 -1.70108e-11 1e-05 960
0.00130702 0.039096 1.92299e-14 -0.00635054 -1.16287 2.77974e-11 1e-05 960
0.00216159 0.0387891 -2.49032e-14 -0.010273 -1.17786 1.39656e-11 1e-05 960
0.00300167 0.0383779 -1.85194e-14 -0.0127572 -1.15772 -6.43986e-11 1e-05 960
0.00394216 0.0411258 2.64397e-14 -0.00857081 -0.869425 2.13493e-11 1e-05 960
0.00044366 0.0387557 -4.65611e-14 -0.00156263 -1.15728 3.45629e-12 1e-05 980
0.00130449 0.0386304 2.40651e-14 -0.00627479 -1.16524 -1.27005e-11 1e-05 980
0.00215751 0.0383175 -2.48183e-14 -0.0101362 -1.18007 -1.51965e-11 1e-05 980
0.00299662 0.037915 -5.08737e-14 -0.0124883 -1.15688 -8.93599e-11 1e-05 980
0.00393878 0.0407788 3.45796e-14 -0.00834529 -0.865412 1.58563e-11 1e-05 980
0.000443039 0.0382923 -3.92884e-14 -0.00154435 -1.15959 2.75116e-11 1e-05 1000
0.00130199 0.0381639 1.0623e-14 -0.00620251 -1.16759 -5.00591e-11 1e-05 1000
0.00215348 0.0378451 -3.02864e-14 -0.0100027 -1.18221 -4.11237e-12 1e-05 1000
0.00299167 0.0374524 -7.91144e-14 -0.01223 -1.15598 -2.90028e-11 1e-05 1000
0.00393548 0.0404334 3.56926e-14 -0.00812637 -0.86145 -1.40304e-11 1e-05 1000
0.000442424 0.037828 -2.93244e-14 -0.00152827 -1.16187 1.48907e-11 1e-05 1020
0.00129953 0.0376964 -4.6516e-15 -0.00613299 -1.16989 -1.90015e-11 1e-05 1020
0.00214951 0.0373718 -2.70101e-14 -0.00987041 -1.18431 1.645e-11 1e-05 1020
0.00298682 0.0369902 -7.02033e-14 -0.0119823 -1.15505 7.40583e-11 1e-05 1020
0.00393227 0.0400895 2.55601e-14 -0.00792556 -0.857767 -3.33425e-11 1e-05 1020
0.000441816 0.0373628 -2.9992e-14 -0.00151233 -1.16411 -1.85674e-11 1e-05 1040
0.00129709 0.037228 -1.40609e-14 -0.00606293 -1.17219 -3.11522e-11 1e-05 1040
0.00214558 0.0368977 -2.00956e-14 -0.00974324 -1.18634 1.95103e-11 1e-05 1040
0.00298208 0.0365283 -3.36886e-14 -0.0117367 -1.15405 8.97831e-11 1e-05 1040
0.00392914 0.0397471 1.25168e-14 -0.00772857 -0.854103 -2.88029e-11 1e-05 1040
0.000441214 0.0368968 -4.14479e-14 -0.00149534 -1.16635 -3.09303e-11 1e-05 1060
0.00129468 0.0367587 -2.97971e-14 -0.00599403 -1.17448 -4.56858e-11 1e-05 1060
0.00214171 0.0364227 -1.20041e-14 -0.00962006 -1.18832 1.72289e-11 1e-05 1060
0.00297743 0.0360669 -8.7012e-15 -0.0115 -1.15304 2.04833e-11 1e-05 1060
0.00392608 0.0394062 2.15499e-15 -0.0075401 -0.850532 -2.48427e-11 1e-05 1060
0.000440619 0.0364298 -5.02761e-14 -0.00147868 -1.16858 -6.51556e-12 1e-05 1080
0.00129229 0.0362885 -4.50055e-14 -0.00592734 -1.17677 -2.10573e-11 1e-05 1080
0.00213789 0.035947 -1.15681e-14 -0.00949934 -1.19027 -1.59025e-11 1e-05 1080
0.00297287 0.0356059 -1.74282e-14 -0.0112699 -1.15199 -6.49692e-11 1e-05 1080
0.0039231 0.0390666 -1.27122e-15 -0.00736347 -0.847123 1.3649e-11 1e-05 1080
0.000440031 0.0359619 -4.61851e-14 -0.00146303 -1.17077 2.6603e-11 1e-05 1100
0.00128993 0.0358173 -4.14529e-14 -0.00586496 -1.179 3.76326e-11 1e-05 1100
0.00213411 0.0354705 -1.81233e-14 -0.00938127 -1.19216 -6.50347e-12 1e-05 1100
0.00296841 0.0351453 -4.93701e-14 -0.0110623 -1.15342 -7.59402e-11 1e-05 1100
0.00392019 0.0387285 9.03584e-16 -0.00718468 -0.843598 -3.25859e-12 1e-05 1100
0.000439448 0.0354932 -3.4325e-14 -0.00144781 -1.17295 2.46968e-11 1e-05 1120
0.0012876 0.0353453 -2.23302e-14 -0.00580491 -1.18121 4.54599e-11 1e-05 1120
0.00213038 0.0349933 -1.23046e-14 -0.00926418 -1.19403 3.2376e-11 1e-05 1120
0.002964 0.0346811 -6.24156e-14 -0.0109499 -1.1656 2.47572e-11 1e-05 1120
0.00391735 0.0383917 2.05062e-15 -0.00701789 -0.840245 1.03931e-11 1e-05 1120
0.000438872 0.0350236 -2.97562e-14 -0.00143305 -1.17511 -6.8362e-12 1e-05 1140
0.00128529 0.0348724 -1.02461e-14 -0.0057456 -1.18341 1.36223e-11 1e-05 1140
0.0021267 0.0345154 1.81961e-15 -0.00914982 -1.19583 2.31371e-11 1e-05 1140
0.00295965 0.0342141 -3.49559e-14 -0.0107752 -1.1684 9.88815e-11 1e-05 1140
0.00391457 0.0380562 6.62824e-15 -0.00685739 -0.836965 6.34725e-12 1e-05 1140
0.000438302 0.0345532 -3.77219e-14 -0.0014187 -1.17725 -3.14108e-11 1e-05 1160
0.001283 0.0343986 -1.07391e-14 -0.00568788 -1.18557 -1.40313e-11 1e-05 1160
0.00212306 0.0340367 1.42676e-15 -0.00903616 -1.19761 -1.28514e-11 1e-05 1160
0.00295538 0.0337467 1.07288e-15 -0.0105871 -1.16873 6.70344e-11 1e-05 1160
0.00391186 0.037722 5.96288e-15 -0.00670617 -0.833838 -9.92272e-12 1e-05 1160
0.000437737 0.0340818 -4.86327e-14 -0.00140464 -1.17938 -1.78736e-11 1e-05 1180
0.00128074 0.033924 -1.9931e-14 -0.00563088 -1.18771 -2.26022e-11 1e-05 1180
0.00211946 0.0335573 -5.26271e-15 -0.00892597 -1.19931 -3.09106e-11 1e-05 1180
0.00295118 0.0332792 2.07917e-14 -0.0103988 -1.16839 5.2215e-11 1e-05 1180
0.0039092 0.037389 1.25495e-15 -0.00656007 -0.83077 -1.04816e-11 1e-05 1180
0.000437178 0.0336097 -4.79064e-14 -0.00139114 -1.18148 2.54042e-11 1e-05 1200
0.00127849 0.0334485 -2.26561e-14 -0.00557464 -1.18984 1.69015e-11 1e-05 1200
0.00211591 0.0330773 -2.25583e-14 -0.00881846 -1.20095 -4.46552e-11 1e-05 1200
0.00294705 0.032812 4.91145e-14 -0.0102142 -1.16785 8.19065e-11 1e-05 1200
0.00390661 0.0370573 -1.21612e-15 -0.00642149 -0.827801 -1.69438e-12 1e-05 1200
0.000436624 0.0331367 -3.18427e-14 -0.00137819 -1.18359 4.99209e-11 1e-05 1220
0.00127627 0.0329721 -9.6201e-15 -0.00552062 -1.19193 3.90123e-11 1e-05 1220
0.00211241 0.0325966 -3.34254e-14 -0.00871203 -1.20257 -3.45539e-12 1e-05 1220
0.002943 0.032345 7.41984e-14 -0.0100374 -1.16726 2.76026e-11 1e-05 1220
0.00390387 0.0367142 1.09135e-16 -0.00723604 -0.885804 -1.11753e-11 1e-05 1220
0.000436075 0.0326628 -1.67299e-14 -0.00136606 -1.18565 2.07801e-11 1e-05 1240
0.00127408 0.032495 2.74746e-15 -0.0054673 -1.19404 1.99017e-11 1e-05 1240
0.00210894 0.0321153 -2.86639e-14 -0.00860752 -1.20414 2.55168e-11 1e-05 1240
0.00293902 0.0318782 6.51868e-14 -0.00986199 -1.16661 -6.68587e-11 1e-05 1240
0.00390093 0.036356 -1.63416e-16 -0.00737522 -0.901661 4.10709e-12 1e-05 1240
0.000435531 0.0321882 -1.85613e-14 -0.00135373 -1.18771 -2.89963e-11 1e-05 1260
0.0012719 0.0320169 9.93316e-15 -0.00541546 -1.19612 2.4164e-11 1e-05 1260
0.00210552 0.0316333 -1.35402e-14 -0.00850176 -1.2057 4.89973e-11 1e-05 1260
0.00293511 0.0314117 3.34622e-14 -0.00968981 -1.16592 -7.58211e-11 1e-05 1260
0.00389799 0.0359948 -3.89819e-16 -0.00729244 -0.90354 -4.74244e-12 1e-05 1260
0.000434992 0.0317127 -3.45068e-14 -0.0013414 -1.18978 -4.33021e-11 1e-05 1280
0.00126974 0.0315381 2.27846e-14 -0.00536301 -1.19819 3.70156e-11 1e-05 1280
0.00210214 0.0311508 3.90021e-15 -0.00839847 -1.2072 2.70293e-11 1e-05 1280
0.00293127 0.0309454 1.39675e-14 -0.00952165 -1.16521 -1.41095e-11 1e-05 1280
0.0038951 0.0356336 -4.55572e-15 -0.00715957 -0.90191 -1.35314e-11 1e-05 1280
0.000434458 0.0312364 -4.67292e-14 -0.00132889 -1.19182 -1.21039e-11 1e-05 1300
0.00126761 0.0310584 3.33223e-14 -0.00531223 -1.20019 3.16251e-12 1e-05 1300
0.0020988 0.0306676 1.41555e-14 -0.00829875 -1.20864 2.71115e-11 1e-05 1300
0.00292749 0.0304795 2.20916e-14 -0.00935857 -1.16448 5.18773e-11 1e-05 1300
0.00389227 0.0352734 -8.6846e-15 -0.00700884 -0.899221 -5.20486e-12 1e-05 1300
0.000433929 0.0307593 -4.28387e-14 -0.0013166 -1.19383 2.84323e-11 1e-05 1320
0.00126549 0.030578 2.50056e-14 -0.00526271 -1.20218 -4.11107e-11 1e-05 1320
0.0020955 0.0301839 2.31336e-14 -0.00820072 -1.21004 1.44206e-11 1e-05 1320
0.00292378 0.0300139 4.42676e-14 -0.00919839 -1.16373 3.9055e-11 1e-05 1320
0.00388949 0.0349142 -9.87182e-15 -0.00686564 -0.896445 -2.44278e-12 1e-05 1320
0.000433404 0.0302814 -2.91903e-14 -0.00130501 -1.19585 3.34513e-11 1e-05 1340
0.0012634 0.0300967 9.02072e-15 -0.00521414 -1.20417 -3.22162e-11 1e-05 1340
0.00209223 0.0296996 2.80668e-14 -0.0081052 -1.21139 1.12474e-11 1e-05 1340
0.00292013 0.0295485 4.35992e-14 -0.00904418 -1.16296 -4.92307e-11 1e-05 1340
0.00388677 0.0345562 -1.06741e-14 -0.00672762 -0.893669 4.99924e-13 1e-05 1340
0.000432884 0.0298026 -1.95523e-14 -0.00129399 -1.19784 1.0826e-11 1e-05 1360
0.00126132 0.0296147 6.96663e-16 -0.00516664 -1.20616 -5.63416e-12 1e-05 1360
0.00208901 0.0292148 2.83452e-14 -0.00800725 -1.21274 -1.74865e-11 1e-05 1360
0.00291654 0.0290835 1.46221e-14 -0.00889204 -1.16217 -8.14164e-11 1e-05 1360
0.00388411 0.0341992 -6.36602e-15 -0.00659204 -0.890885 2.45469e-11 1e-05 1360
0.000432369 0.0293231 -2.07801e-14 -0.0012835 -1.19983 -1.50563e-11 1e-05 1380
0.00125926 0.0291319 3.7874e-15 -0.00512038 -1.2081 2.16116e-11 1e-05 1380
0.00208583 0.0287294 1.58311e-14 -0.0079126 -1.21402 -3.62301e-11 1e-05 1380
0.00291302 0.0286188 -8.42255e-15 -0.00874274 -1.16135 -3.26188e-11 1e-05 1380
0.00388149 0.0338434 2.9415e-15 -0.00646025 -0.888154 -2.76114e-12 1e-05 1380
0.000431857 0.0288428 -2.83251e-14 -0.00127325 -1.20179 -1.80997e-11 1e-05 1400
0.00125722 0.0286483 1.14715e-14 -0.0050742 -1.21002 5.69801e-12 1e-05 1400
0.00208268 0.0282436 5.47347e-15 -0.00781829 -1.21527 -1.30512e-11 1e-05 1400
0.00290955 0.0281544 -2.44328e-14 -0.00859727 -1.16053 -5.89611e-11 1e-05 1400
0.00387893 0.0334886 -1.57162e-15 -0.00633555 -0.885555 -3.7136e-12 1e-05 1400
0.00043135 0.0283617 -3.16867e-14 -0.00126274 -1.20374 3.47475e-12 1e-05 1420
0.0012552 0.0281639 5.97978e-15 -0.00502874 -1.2119 -3.26256e-11 1e-05 1420
0.00207957 0.0277573 1.95345e-15 -0.00772381 -1.21649 -7.16545e-12 1e-05 1420
0.00290613 0.0276903 -5.16159e-14 -0.00845428 -1.15969 -6.58426e-11 1e-05 1420
0.00387642 0.0331349 -1.98582e-16 -0.00621289 -0.882974 1.04486e-11 1e-05 1420
0.000430847 0.0278799 -2.72115e-14 -0.00125207 -1.20566 1.56499e-11 1e-05 1440
0.0012532 0.0276788 -3.81224e-15 -0.0049828 -1.21377 -6.30148e-12 1e-05 1440
0.0020765 0.0272704 7.26312e-16 -0.00763045 -1.21767 3.85415e-12 1e-05 1440
0.00290278 0.0272266 -6.39488e-14 -0.00831473 -1.15884 1.80824e-11 1e-05 1440
0.00387396 0.0327822 -1.33451e-16 -0.00609168 -0.880383 5.07776e-12 1e-05 1440
0.000430348 0.0273973 -2.13991e-14 -0.00124128 -1.20758 9.23901e-12 1e-05 1460
0.00125121 0.0271929 -6.56489e-15 -0.00493659 -1.21563 -9.04456e-12 1e-05 1460
0.00207346 0.0267832 1.32097e-15 -0.00753839 -1.2188 -1.10065e-11 1e-05 1460
0.00289948 0.0267632 -4.03026e-14 -0.00817801 -1.15799 9.04369e-11 1e-05 1460
0.00387155 0.0324305 -1.29889e-16 -0.00597697 -0.877891 -1.82154e-14 1e-05 1460
0.000429853 0.0269139 -2.21435e-14 -0.001231 -1.20947 -1.29023e-11 1e-05 1480
0.00124927 0.0267064 -1.33092e-14 -0.00464255 -1.21683 -2.33341e-11 1e-05 1480
0.00207046 0.0262954 6.45299e-16 -0.00744626 -1.2199 -1.64754e-12 1e-05 1480
0.00289624 0.0263002 -6.20574e-15 -0.00804093 -1.15712 6.71055e-11 1e-05 1480
0.00386918 0.0320798 -1.28427e-15 -0.00586477 -0.875404 -5.96511e-12 1e-05 1480
0.000429363 0.0264297 -2.99321e-14 -0.00122084 -1.21136 -2.00768e-11 1e-05 1500
0.00124748 0.0262194 -2.14658e-14 -0.0043426 -1.21803 -8.84069e-12 1e-05 1500
0.0020675 0.0258073 -1.3105e-15 -0.00735342 -1.22097 -8.1101e-12 1e-05 1500
0.00289304 0.0258375 1.2282e-14 -0.00790618 -1.15624 4.10869e-11 1e-05 1500
0.00386685 0.0317301 -1.79351e-15 -0.0057601 -0.873048 6.53634e-12 1e-05 1500
0.000428877 0.0259448 -3.40623e-14 -0.00121054 -1.21325 5.84439e-12 1e-05 1520
0.00124577 0.0257319 -1.79303e-14 -0.00423554 -1.2197 3.1208e-11 1e-05 1520
0.00206458 0.0253187 -5.33349e-15 -0.00726105 -1.22199 -9.45894e-12 1e-05 1520
0.00288991 0.0253752 3.50294e-14 -0.00777357 -1.15535 7.04063e-11 1e-05 1520
0.00386457 0.0313814 5.46475e-16 -0.00565438 -0.870638 -6.86575e-12 1e-05 1520
0.000428394 0.0254591 -2.53264e-14 -0.00119999 -1.21512 3.38432e-11 1e-05 1540
0.00124408 0.0252437 2.73862e-16 -0.00417812 -1.22145 4.64882e-11 1e-05 1540
0.00206169 0.0248297 -8.4297e-15 -0.00716727 -1.223 -7.86319e-12 1e-05 1540
0.00288682 0.0249132 5.88263e-14 -0.00764299 -1.15447 3.01152e-11 1e-05 1540
0.00386233 0.0310336 -8.38477e-16 -0.005553 -0.868306 -2.96045e-12 1e-05 1540
0.000427916 0.0249727 -1.11628e-14 -0.00118912 -1.21699 2.81395e-11 1e-05 1560
0.00124242 0.0247548 6.70888e-15 -0.00413173 -1.22325 9.10791e-12 1e-05 1560
0.00205885 0.0243403 -8.49078e-15 -0.00707111 -1.22398 1.84547e-11 1e-05 1560
0.00288379 0.0244516 5.38606e-14 -0.0075116 -1.15357 -5.75752e-11 1e-05 1560
0.00386012 0.0306867 -2.99459e-15 -0.00545553 -0.866042 -3.78226e-12 1e-05 1560